<VTKFile byte_order="LittleEndian" type="PolyData" version="0.1">
        <PolyData>
            <Piece NumberOfLines="5723" NumberOfPoints="5550">
                <Points>
                <DataArray Name="coords" NumberOfComponents="3" type="Float64">0.00028665	4.68e-05	0.001365	0.0010842	0.00025935	0.0009087	0.00139425	0.00052845	0.00102375	0.00120315	0.0003744	0.0012597	6.825e-05	0.0003549	0.00040365	0.00072345	0.000429	0.00121095	0.00071175	0.0004212	0.0012558	0.00136305	0.00024765	1.95e-06	0.0013728	0.0002496	6.63e-05	0.0012675	0.00039195	0.00053235	0.00028275	0.00116805	8.19e-05	0.00140205	0.00102765	0.001053	0.00073905	0.0007488	3.9e-06	0.0005265	0.0007254	0.0007956	0.00060645	0.00027495	8.58e-05	0.0006981	0.00056355	0.00132405	0.0014157	0.0001014	0.00114075	0.0014898	0.00061425	7.8e-06	0.0010998	0.0004485	0.00013845	0.00086385	0.0004719	0.00140595	0.0001365	0.0010608	0.00082485	0.0003276	0.0002418	0.0009555	0.000351	0.0004329	0.0014976	0.0003042	0.00105495	0.00032175	0.0005421	0.00051285	0.00151905	0.00055965	0.000507	0.00149565	0.000819	0.00072735	0.00040755	0.0004017	0.00146445	0.0015054	0.0014781	0.00076635	0.0009945	0.00110565	0.00117	0.00107445	0.0005538	0.0004017	0.0012246	5.655e-05	0.00137475	0.00080925	0.00086775	8.58e-05	0.0007527	0.00107835	0.0004563	0.0012324	0.0011622	0.00025545	0.0011388	0.0001131	0.0014976	0.0014001	0.0015405	0.0008541	7.995e-05	0.0012012	0.00135915	0.000663	2.535e-05	0.0007839	0.00034125	0.000624	0.00122265	0.0014703	0.0002457	0.00044655	0.00052065	0.0014157	0.0008073	0.00026715	0.00145275	0.0004251	0.0005265	0.00146835	0.0004446	0.00048165	0.0013494	0.00152685	3.9e-06	0.00132405	0.0007761	0.00138255	0.0005499	0.00155025	1.95e-06	0.0005499	0.00155415	5.07e-05	0.0005694	0.001209	0.00143325	0.00076245	0.00011505	0.00068835	0.00112905	0.00082095	0.0014508	0.000936	0.00089115	0.001482	0.00148785	0.0001131	0.000741	0.00118755	6.045e-05	0.00102375	0.0013923	0.00155415	0.0014469	0.00084045	0.00016575	0.00059085	0.00077805	0.00109395	0.00052065	1.95e-06	0.00096915	0.0004602	0.0013923	0.00038415	0.00013455	0.0011115	0.0015366	0.0001209	0.0010257	0.0002145	0.00090675	0.0003432	0.00086385	0.00031395	0.00066105	0.0003744	0.00122655	0.0003237	0.000156	0.00126165	0.0009048	0.0011271	0.00101595	0.00018915	0.0006786	0.00071565	0.000117	0.0014742	0.0011661	0.00130455	0.00083655	0.00134355	0.00025155	0.0003003	0.00115245	1.95e-06	0.00133185	0.0008385	0.0015444	0.0001716	0.0007449	0.0005811	0.0007176	0.0008073	0.00054015	0.0012285	0.0014703	0.00126555	0.0004329	0.0012636	0.00110175	0.0007683	0.00098085	0.0010998	0.00024375	0.00138255	7.8e-05	0.00095355	0.0010764	0.00151515	0.0003042	0.0005343	0.00114465	9.945e-05	0.0003354	0.00066105	0.0006552	0.00133575	0.0015171	0.000975	0.00121875	0.001287	0.000468	0.0014352	0.00138645	0.00152295	0.00040755	0.00015405	0.00118365	0.0006825	0.00013845	0.00045435	0.00038415	0.00088335	0.00016575	0.00110175	2.925e-05	0.0014703	0.00117	0.0008385	0.00065325	0.00146835	0.00135135	0.000897	0.00133185	0.00091845	0.0011427	0.00115635	0.0011115	0.00026325	0.0002496	0.0007176	0.00028275	0.00155415	0.00024375	2.925e-05	0.00126165	0.0011388	0.0006201	2.925e-05	0.0014781	0.00045825	0.0008073	0.00151905	0.0009516	0.00093795	0.0014508	0.00052455	0.0010764	0.0015444	0.00039585	0.0003003	0.0001131	0.00088725	0.0013182	0.0003471	0.00139035	0.0002769	0.00100035	0.00073125	0.00066495	0.0006669	3.315e-05	0.00103545	0.0006825	4.485e-05	0.0010608	0.00140595	0.0015054	0.0004602	0.00045045	0.00039585	0.001053	0.00152295	4.875e-05	0.0007761	0.0015522	3.9e-05	0.00042315	0.0006942	0.00015795	0.0003471	0.0006318	0.00133185	0.0002964	0.0005304	0.00015015	0.00093405	0.00070785	0.0012363	0.0015561	0.00114855	0.00059475	0.0009516	0.0013533	0.0004485	0.00154635	0.0006591	0.0002535	0.00142935	0.0006552	0.0006786	0.00133185	0.0004212	0.00091065	0.00068055	0.00014625	0.00144495	0.00112125	0.00135135	0.0002028	0.0009165	0.00075465	0.0001404	0.00017355	0.00112905	0.00151905	0.0003432	0.00065325	0.00017745	0.0012441	0.00138255	0.00052455	0.0001053	0.00033345	0.0011739	0.00013845	0.00143715	0.00075075	0.0009438	0.0008424	0.00066105	0.0008775	0.00054405	0.0010998	0.0009282	0.0006162	0.00132405	0.0003081	0.00064545	0.00011895	0.00013065	0.0011934	0.00012285	0.0008229	0.001209	0.0001131	0.0008268	0.00059865	0.00133185	0.00032565	0.0014079	0.0010881	0.00139815	0.0008034	5.85e-05	0.00126555	0.00081315	3.51e-05	0.0012558	0.0015015	0.00046605	0.00046995	0.0014898	0.0004563	0.00046605	0.0005577	0.00046215	0.00053235	0.0004758	0.00092625	0.0009126	0.00069225	0.0009906	0.00076245	0.0008658	0.0014313	0.0009984	0.0007995	0.0012012	0.0012363	0.0004953	0.0003861	0.0014586	0.00136695	0.00030225	0.0002886	0.0013494	0.0003042	0.00031785	0.00022425	0.00032565	0.00019695	0.00137865	0.0004914	0.00073125	0.00089895	0.00060645	0.00043095	0.0006474	0.000897	0.0012051	0.0006786	0.000273	0.00046605	0.00015015	0.00044655	0.00039585	0.00050895	0.0005343	0.0013767	0.0011856	0.00070005	0.00058305	0.0003939	6.63e-05	0.0014703	0.00077805	0.0007839	7.02e-05	0.00081705	0.0007644	4.485e-05	0.0008268	0.00066495	0.00078585	0.0013884	0.00012285	0.00029835	0.0011466	0.00040365	0.0012909	0.00041535	0.00118755	0.00155415	0.0012597	0.00152685	0.0014391	0.0006591	0.00046995	0.00023985	0.0005928	0.000546	0.0008814	0.00102375	0.00013845	0.00107445	0.00105105	0.0001638	0.00104715	0.00140595	0.0009789	0.0007761	0.00121095	0.00037245	0.00088335	0.0015327	0.0006474	5.265e-05	0.0012714	0.00044265	0.00124605	0.00095745	0.00082875	0.00124605	4.875e-05	0.0011583	0.000702	0.0007293	0.00124995	0.00154245	0.0014274	0.0014118	0.001365	0.00048945	0.00134355	0.0015093	0.0013065	0.0005655	0.0013026	0.0013611	5.85e-06	0.0015561	0.0002769	0.0001677	0.00065715	0.0012363	0.0011817	9.36e-05	0.00154245	2.925e-05	0.0015522	0.0015522	5.85e-06	0.0015171	0.00114465	0.00120315	3.705e-05	0.0009828	9.75e-06	0.00139035	0.00090285	0.000897	0.00148005	0.00115635	0.0008541	0.0003159	0.0013767	0.0011973	0.00049725	0.0014859	3.9e-05	0.0013767	0.0006708	0.00054015	0.00111735	0.00112905	0.00054405	0.00025935	0.00086385	0.0001287	0.0007137	0.0009516	0.00016185	0.0006903	0.00153075	0.0013338	0.000702	0.00059085	3.51e-05	0.00091845	0.00124605	0.00118755	0.00012285	0.00095745	0.00017355	9.75e-05	0.0001677	0.0015054	0.0001014	0.00119925	3.9e-05	0.0007332	0.00093405	0.0004524	0.0001677	0.00133965	0.0004446	0.0010998	0.00141765	0.00124215	0.0007605	0.000273	1.95e-06	0.0009867	0.00026715	1.17e-05	0.0009711	0.00021255	0.00142545	0.00096135	0.0009009	7.215e-05	0.0007956	5.07e-05	0.0013611	0.0010101	0.00033735	0.00062985	0.00071565	0.0008073	0.00096915	0.00073125	0.00039975	0.000468	0.0007917	0.00020475	0.0003666	0.0011817	0.00154635	3.51e-05	0.00119925	0.0005421	1.95e-05	0.00064545	0.00132795	0.00077805	0.0009594	0.00116805	0.0005811	0.0008229	0.0006747	0.00124215	0.00101205	0.00041925	0.00039	0.00056355	0.0014898	0.00126945	0.00060255	0.0011739	0.0004992	0.00088725	0.00042315	0.00127335	0.00034125	0.00125775	0.0008268	0.0002457	0.0013299	0.00032565	0.0011193	0.0007761	0.0006474	0.0008268	0.0001911	0.00044655	0.0007839	0.0015483	0.0012168	0.0009633	0.00031005	0.0015561	0.00153855	0.0002574	0.00154635	0.00152295	0.00109395	0.0009438	0.0005538	0.0010218	0.00135915	0.0014118	0.0005499	0.00025935	0.0008112	0.00130455	0.00057525	0.00128505	0.00085605	0.0002262	7.605e-05	9.945e-05	0.00041535	0.00153465	0.00011505	0.00042315	0.0015015	0.0011661	0.00038025	0.0004446	0.00104715	0.0012831	0.0005265	3.9e-06	0.0011973	0.00013065	9.75e-06	0.0011856	0.0001482	0.0007566	0.0005421	0.00097305	0.0013026	0.00015015	0.00034515	0.00153075	3.9e-05	0.00124215	0.00137475	0.00047775	0.0007761	0.0015132	0.00132405	0.0009594	0.0011739	0.00135915	0.00150735	0.00038025	0.00051675	8.385e-05	0.00109395	0.00015795	8.19e-05	0.0012519	0.00016965	0.00070395	0.00153465	0.0008073	0.00094185	0.00031395	0.0001521	0.0013182	0.0007137	0.0001092	0.00120315	0.00061815	0.00064935	0.00031395	0.00077025	0.0006708	0.0009087	0.00076245	0.00113685	0.00081315	0.0005109	0.0004563	0.0015093	0.0001443	0.00057135	0.00101985	0.0012402	0.0012285	5.655e-05	0.00040755	5.85e-05	0.0001716	0.00068445	8.19e-05	0.0011622	0.0009399	0.00013065	0.00010725	0.00149955	0.0014118	0.0001287	0.0011973	8.58e-05	0.00041925	0.00123045	0.0001014	0.0004134	0.00025545	0.00025935	0.00089115	0.001092	0.000117	0.00042705	0.00080535	0.00020085	0.00037635	0.0006591	0.00044655	0.00029445	0.000468	0.0014352	0.00118755	0.001014	0.0012402	2.145e-05	0.00085605	0.00067665	0.0008697	0.0001248	0.00014235	0.0012909	0.00098475	0.00117195	0.00075465	0.0002691	0.001131	0.00011895	0.00147615	0.0003432	0.00059085	0.00121095	0.0003237	0.00107445	0.0004368	0.00142545	0.0001521	0.0015561	0.0013104	0.0010959	4.29e-05	5.46e-05	0.00058305	0.00119535	5.85e-05	0.0010608	0.00146835	4.29e-05	0.0006279	0.0001521	0.00155415	0.0006162	0.0002964	0.00147225	0.0001599	0.0005811	0.0015444	0.0001092	0.00080925	0.00087165	0.0004017	0.0002067	0.0013377	0.00155025	0.00019695	0.00043485	0.00151905	0.0006864	0.0012246	0.00152685	0.00151905	6.435e-05	0.0007449	0.00082095	0.00117195	0.00125385	0.00082485	0.0011934	0.0012519	0.0004992	0.00044265	6.63e-05	0.0005187	0.00154245	0.0012831	0.0011778	0.00016185	0.00033345	0.0003666	1.95e-06	0.00034905	0.00031785	0.0006474	0.00069225	0.0012402	0.00049335	0.00099255	0.00125385	0.00051285	0.0009906	0.00144495	0.00145275	0.000273	0.0010062	0.00038805	0.00099645	0.00122655	0.00142935	0.0009789	0.00098085	0.00084045	0.00114465	0.0003978	0.0003198	0.00118365	0.00054795	0.0008931	0.00101205	0.00025545	0.0014664	3.705e-05	0.00082485	0.0001989	0.00101985	0.00038805	0.00091065	0.00024765	0.0014118	0.0001482	0.00017745	0.0014001	0.0001482	0.00016185	0.0011661	0.00017355	0.00032175	0.00106275	0.00154635	0.00070395	0.000273	0.00035685	0.0009867	0.00132795	3.705e-05	0.00091845	0.00014235	0.00043485	0.0009087	0.00027105	0.00127725	0.0003159	0.00123045	0.00118755	6.825e-05	0.00152295	6.24e-05	0.00072345	0.0008892	2.73e-05	0.00131625	0.0003081	0.0001638	0.00127335	0.00046605	0
[...]
                <PointData>
                <DataArray Name="pore.all" NumberOfComponents="1" type="Int64">1	1	1	1	1	1	1	1	1	1	1	1	1	1	1	1	1	1	1	1	1	1	1	1	1	1	1	1	1	1	1	1	1	1	1	1	1	1	1	1	1	1	1	1	1	1	1	1	1	1	1	1	1	1	1	1	1	1	1	1	1	1	1	1	1	1	1	1	1	1	1	1	1	1	1	1	1	1	1	1	1	1	1	1	1	1	1	1	1	1	1	1	1	1	1	1	1	1	1	1	1	1	1	1	1	1	1	1	1	1	1	1	1	1	1	1	1	1	1	1	1	1	1	1	1	1	1	1	1	1	1	1	1	1	1	1	1	1	1	1	1	1	1	1	1	1	1	1	1	1	1	1	1	1	1	1	1	1	1	1	1	1	1	1	1	1	1	1	1	1	1	1	1	1	1	1	1	1	1	1	1	1	1	1	1	1	1	1	1	1	1	1	1	1	1	1	1	1	1	1	1	1	1	1	1	1	1	1	1	1	1	1	1	1	1	1	1	1	1	1	1	1	1	1	1	1	1	1	1	1	1	1	1	1	1	1	1	1	1	1	1	1	1	1	1	1	1	1	1	1	1	1	1	1	1	1	1	1	1	1	1	1	1	1	1	1	1	1	1	1	1	1	1	1	1	1	1	1	1	1	1	1	1	1	1	1	1	1	1	1	1	1	1	1	1	1	1	1	1	1	1	1	1	1	1	1	1	1	1	1	1	1	1	1	1	1	1	1	1	1	1	1	1	1	1	1	1	1	1	1	1	1	1	1	1	1	1	1	1	1	1	1	1	1	1	1	1	1	1	1	1	1	1	1	1	1	1	1	1	1	1	1	1	1	1	1	1	1	1	1	1	1	1	1	1	1	1	1	1	1	1	1	1	1	1	1	1	1	1	1	1	1	1	1	1	1	1	1	1	1	1	1	1	1	1	1	1	1	1	1	1	1	1	1	1	1	1	1	1	1	1	1	1	1	1	1	1	1	1	1	1	1	1	1	1	1	1	1	1	1	1	1	1	1	1	1	1	1	1	1	1	1	1	1	1	1	1	1	1	1	1	1	1	1	1	1	1	1	1	1	1	1	1	1	1	1	1	1	1	1	1	1	1	1	1	1	1	1	1	1	1	1	1	1	1	1	1	1	1	1	1	1	1	1	1	1	1	1	1	1	1	1	1	1	1	1	1	1	1	1	1	1	1	1	1	1	1	1	1	1	1	1	1	1	1	1	1	1	1	1	1	1	1	1	1	1	1	1	1	1	1	1	1	1	1	1	1	1	1	1	1	1	1	1	1	1	1	1	1	1	1	1	1	1	1	1	1	1	1	1	1	1	1	1	1	1	1	1	1	1	1	1	1	1	1	1	1	1	1	1	1	1	1	1	1	1	1	1	1	1	1	1	1	1	1	1	1	1	1	1	1	1	1	1	1	1	1	1	1	1	1	1	1	1	1	1	1	1	1	1	1	1	1	1	1	1	1	1	1	1	1	1	1	1	1	1	1	1	1	1	1	1	1	1	1	1	1	1	1	1	1	1	1	1	1	1	1	1	1	1	1	1	1	1	1	1	1	1	1	1	1	1	1	1	1	1	1	1	1	1	1	1	1	1	1	1	1	1	1	1	1	1	1	1	1	1	1	1	1	1	1	1	1	1	1	1	1	1	1	1	1	1	1	1	1	1	1	1	1	1	1	1	1	1	1	1	1	1	1	1	1	1	1	1	1	1	1	1	1	1	1	1	1	1	1	1	1	1	1	1	1	1	1	1	1	1	1	1	1	1	1	1	1	1	1	1	1	1	1	1	1	1	1	1	1	1	1	1	1	1	1	1	1	1	1	1	1	1	1	1	1	1	1	1	1	1	1	1	1	1	1	1	1	1	1	1	1	1	1	1	1	1	1	1	1	1	1	1	1	1	1	1	1	1	1	1	1	1	1	1	1	1	1	1	1	1	1	1	1	1	1	1	1	1	1	1	1	1	1	1	1	1	1	1	1	1	1	1	1	1	1	1	1	1	1	1	1	1	1	1	1	1	1	1	1	1	1	1	1	1	1	1	1	1	1	1	1	1	1	1	1	1	1	1	1	1	1	1	1	1	1	1	1	1	1	1	1	1	1	1	1	1	1	1	1	1	1	1	1	1	1	1	1	1	1	1	1	1	1	1	1	1	1	1	1	1	1	1	1	1	1	1	1	1	1	1	1	1	1	1	1	1	1	1	1	1	1	1	1	1	1	1	1	1	1	1	1	1	1	1	1	1	1	1	1	1	1	1	1	1	1	1	1	1	1	1	1	1	1	1	1	1	1	1	1	1	1	1	1	1	1	1	1	1	1	1	1	1	1	1	1	1	1	1	1	1	1	1	1	1	1	1	1	1	1	1	1	1	1	1	1	1	1	1	1	1	1	1	1	1	1	1	1	1	1	1	1	1	1	1	1	1	1	1	1	1	1	1	1	1	1	1	1	1	1	1	1	1	1	1	1	1	1	1	1	1	1	1	1	1	1	1	1	1	1	1	1	1	1	1	1	1	1	1	1	1	1	1	1	1	1	1	1	1	1	1	1	1	1	1	1	1	1	1	1	1	1	1	1	1	1	1	1	1	1	1	1	1	1	1	1	1	1	1	1	1	1	1	1	1	1	1	1	1	1	1	1	1	1	1	1	1	1	1	1	1	1	1	1	1	1	1	1	1	1	1	1	1	1	1	1	1	1	1	1	1	1	1	1	1	1	1	1	1	1	1	1	1	1	1	1	1	1	1	1	1	1	1	1	1	1	1	1	1	1	1	1	1	1	1	1	1	1	1	1	1	1	1	1	1	1	1	1	1	1	1	1	1	1	1	1	1	1	1	1	1	1	1	1	1	1	1	1	1	1	1	1	1	1	1	1	1	1	1	1	1	1	1	1	1	1	1	1	1	1	1	1	1	1	1	1	1	1	1	1	1	1	1	1	1	1	1	1	1	1	1	1	1	1	1	1	1	1	1	1	1	1	1	1	1	1	1	1	1	1	1	1	1	1	1	1	1	1	1	1	1	1	1	1	1	1	1	1	1	1	1	1	1	1	1	1	1	1	1	1	1	1	1	1	1	1	1	1	1	1	1	1	1	1	1	1	1	1	1	1	1	1	1	1	1	1	1	1	1	1	1	1	1	1	1	1	1	1	1	1	1	1	1	1	1	1	1	1	1	1	1	1	1	1	1	1	1	1	1	1	1	1	1	1	1	1	1	1	1	1	1	1	1	1	1	1	1	1	1	1	1	1	1	1	1	1	1	1	1	1	1	1	1	1	1	1	1	1	1	1	1	1	1	1	1	1	1	1	1	1	1	1	1	1	1	1	1	1	1	1	1	1	1	1	1	1	1	1	1	1	1	1	1	1	1	1	1	1	1	1	1	1	1	1	1	1	1	1	1	1	1	1	1	1	1	1	1	1	1	1	1	1	1	1	1	1	1	1	1	1	1	1	1	1	1	1	1	1	1	1	1	1	1	1	1	1	1	1	1	1	1	1	1	1	1	1	1	1	1	1	1	1	1	1	1	1	1	1	1	1	1	1	1	1	1	1	1	1	1	1	1	1	1	1	1	1	1	1	1	1	1	1	1	1	1	1	1	1	1	1	1	1	1	1	1	1	1	1	1	1	1	1	1	1	1	1	1	1	1	1	1	1	1	1	1	1	1	1	1	1	1	1	1	1	1	1	1	1	1	1	1	1	1	1	1	1	1	1	1	1	1	1	1	1	1	1	1	1	1	1	1	1	1	1	1	1	1	1	1	1	1	1	1	1	1	1	1	1	1	1	1	1	1	1	1	1	1	1	1	1	1	1	1	1	1	1	1	1	1	1	1	1	1	1	1	1	1	1	1	1	1	1	1	1	1	1	1	1	1	1	1	1	1	1	1	1	1	1	1	1	1	1	1	1	1	1	1	1	1	1	1	1	1	1	1	1	1	1	1	1	1	1	1	1	1	1	1	1	1	1	1	1	1	1	1	1	1	1	1	1	1	1	1	1	1	1	1	1	1	1	1	1	1	1	1	1	1	1	1	1	1	1	1	1	1	1	1	1	1	1	1	1	1	1	1	1	1	1	1	1	1	1	1	1	1	1	1	1	1	1	1	1	1	1	1	1	1	1	1	1	1	1	1	1	1	1	1	1	1	1	1	1	1	1	1	1	1	1	1	1	1	1	1	1	1	1	1	1	1	1	1	1	1	1	1	1	1	1	1	1	1	1	1	1	1	1	1	1	1	1	1	1	1	1	1	1	1	1	1	1	1	1	1	1	1	1	1	1	1	1	1	1	1	1	1	1	1	1	1	1	1	1	1	1	1	1	1	1	1	1	1	1	1	1	1	1	1	1	1	1	1	1	1	1	1	1	1	1	1	1	1	1	1	1	1	1	1	1	1	1	1	1	1	1	1	1	1	1	1	1	1	1	1	1	1	1	1	1	1	1	1	1	1	1	1	1	1	1	1	1	1	1	1	1	1	1	1	1	1	1	1	1	1	1	1	1	1	1	1	1	1	1	1	1	1	1	1	1	1	1	1	1	1	1	1	1	1	1	1	1	1	1	1	1	1	1	1	1	1	1	1	1	1	1	1	1	1	1	1	1	1	1	1	1	1	1	1	1	1	1	1	1	1	1	1	1	1	1	1	1	1	1	1	1	1	1	1	1	1	1	1	1	1	1	1	1	1	1	1	1	1	1	1	1	1	1	1	1	1	1	1	1	1	1	1	1	1	1	1	1	1	1	1	1	1	1	1	1	1	1	1	1	1	1	1	1	1	1	1	1	1	1	1	1	1	1	1	1	1	1	1	1	1	1	1	1	1	1	1	1	1	1	1	1	1	1	1	1	1	1	1	1	1	1	1	1	1	1	1	1	1	1	1	1	1	1	1	1	1	1	1	1	1	1	1	1	1	1	1	1	1	1	1	1	1	1	1	1	1	1	1	1	1	1	1	1	1	1	1	1	1	1	1	1	1	1	1	1	1	1	1	1	1	1	1	1	1	1	1	1	1	1	1	1	1	1	1	1	1	1	1	1	1	1	1	1	1	1	1	1	1	1	1	1	1	1	1	1	1	1	1	1	1	1	1	1	1	1	1	1	1	1	1	1	1	1	1	1	1	1	1	1	1	1	1	1	1	1	1	1	1	1	1	1	1	1	1	1	1	1	1	1	1	1	1	1	1	1	1	1	1	1	1	1	1	1	1	1	1	1	1	1	1	1	1	1	1	1	1	1	1	1	1	1	1	1	1	1	1	1	1	1	1	1	1	1	1	1	1	1	1	1	1	1	1	1	1	1	1	1	1	1	1	1	1	1	1	1	1	1	1	1	1	1	1	1	1	1	1	1	1	1	1	1	1	1	1	1	1	1	1	1	1	1	1	1	1	1	1	1	1	1	1	1	1	1	1	1	1	1	1	1	1	1	1	1	1	1	1	1	1	1	1	1	1	1	1	1	1	1	1	1	1	1	1	1	1	1	1	1	1	1	1	1	1	1	1	1	1	1	1	1	1	1	1	1	1	1	1	1	1	1	1	1	1	1	1	1	1	1	1	1	1	1	1	1	1	1	1	1	1	1	1	1	1	1	1	1	1	1	1	1	1	1	1	1	1	1	1	1	1	1	1	1	1	1	1	1	1	1	1	1	1	1	1	1	1	1	1	1	1	1	1	1	1	1	1	1	1	1	1	1	1	1	1	1	1	1	1	1	1	1	1	1	1	1	1	1	1	1	1	1	1	1	1	1	1	1	1	1	1	1	1	1	1	1	1	1	1	1	1	1	1	1	1	1	1	1	1	1	1	1	1	1	1	1	1	1	1	1	1	1	1	1	1	1	1	1	1	1	1	1	1	1	1	1	1	1	1	1	1	1	1	1	1	1	1	1	1	1	1	1	1	1	1	1	1	1	1	1	1	1	1	1	1	1	1	1	1	1	1	1	1	1	1	1	1	1	1	1	1	1	1	1	1	1	1	1	1	1	1	1	1	1	1	1	1	1	1	1	1	1	1	1	1	1	1	1	1	1	1	1	1	1	1	1	1	1	1	1	1	1	1	1	1	1	1	1	1	1	1	1	1	1	1	1	1	1	1	1	1	1	1	1	1	1	1	1	1	1	1	1	1	1	1	1	1	1	1	1	1	1	1	1	1	1	1	1	1	1	1	1	1	1	1	1	1	1	1	1	1	1	1	1	1	1	1	1	1	1	1	1	1	1	1	1	1	1	1	1	1	1	1	1	1	1	1	1	1	1	1	1	1	1	1	1	1	1	1	1	1	1	1	1	1	1	1	1	1	1	1	1	1	1	1	1	1	1	1	1	1	1	1	1	1	1	1	1	1	1	1	1	1	1	1	1	1	1	1	1	1	1	1	1	1	1	1	1	1	1	1	1	1	1	1	1	1	1	1	1	1	1	1	1	1	1	1	1	1	1	1	1	1	1	1	1	1	1	1	1	1	1	1	1	1	1	1	1	1	1	1	1	1	1	1	1	1	1	1	1	1	1	1	1	1	1	1	1	1	1	1	1	1	1	1	1	1	1	1	1	1	1	1	1	1	1	1	1	1	1	1	1	1	1	1	1	1	1	1	1	1	1	1	1	1	1	1	1	1	1	1	1	1	1	1	1	1	1	1	1	1	1	1	1	1	1	1	1	1	1	1	1	1	1	1	1	1	1	1	1	1	1	1	1	1	1	1	1	1	1	1	1	1	1	1	1	1	1	1	1	1	1	1	1	1	1	1	1	1	1	1	1	1	1	1	1	1	1	1	1	1	1	1	1	1	1	1	1	1	1	1	1	1	1	1	1	1	1	1	1	1	1	1	1	1	1	1	1	1	1	1	1	1	1	1	1	1	1	1	1	1	1	1	1	1	1	1	1	1	1	1	1	1	1	1	1	1	1	1	1	1	1	1	1	1	1	1	1	1	1	1	1	1	1	1	1	1	1	1	1	1	1	1	1	1	1	1	1	1	1	1	1	1	1	1	1	1	1	1	1	1	1	1	1	1	1	1	1	1	1	1	1	1	1	1	1	1	1	1	1	1	1	1	1	1	1	1	1	1	1	1	1	1	1	1	1	1	1	1	1	1	1	1	1	1	1	1	1	1	1	1	1	1	1	1	1	1	1	1	1	1	1	1	1	1	1	1	1	1	1	1	1	1	1	1	1	1	1	1	1	1	1	1	1	1	1	1	1	1	1	1	1	1	1	1	1	1	1	1	1	1	1	1	1	1	1	1	1	1	1	1	1	1	1	1	1	1	1	1	1	1	1	1	1	1	1	1	1	1	1	1	1	1	1	1	1	1	1	1	1	1	1	1	1	1	1	1	1	1	1	1	1	1	1	1	1	1	1	1	1	1	1	1	1	1	1	1	1	1	1	1	1	1	1	1	1	1	1	1	1	1	1	1	1	1	1	1	1	1	1	1	1	1	1	1	1	1	1	1	1	1	1	1	1	1	1	1	1	1	1	1	1	1	1	1	1	1	1	1	1	1	1	1	1	1	1	1	1	1	1	1	1	1	1	1	1	1	1	1	1	1	1	1	1	1	1	1	1	1	1	1	1	1	1	1	1	1	1	1	1	1	1	1	1	1	1	1	1	1	1	1	1	1	1	1	1	1	1	1	1	1	1	1	1	1	1	1	1	1	1	1	1	1	1	1	1	1	1	1	1	1	1	1	1	1	1	1	1	1	1	1	1	1	1	1	1	1	1	1	1	1	1	1	1	1	1	1	1	1	1	1	1	1	1	1	1	1	1	1	1	1	1	1	1	1	1	1	1	1	1	1	1	1	1	1	1	1	1	1	1	1	1	1	1	1	1	1	1	1	1	1	1	1	1	1	1	1	1	1	1	1	1	1	1	1	1	1	1	1	1	1	1	1	1	1	1	1	1	1	1	1	1	1	1	1	1	1	1	1	1	1	1	1	1	1	1	1	1	1	1	1	1	1	1	1	1	1	1	1	1	1	1	1	1	1	1	1	1	1	1	1	1	1	1	1	1	1	1	1	1	1	1	1	1	1	1	1	1	1	1	1	1	1	1	1	1	1	1	1	1	1	1	1	1	1	1	1	1	1	1	1	1	1	1	1	1	1	1	1	1	1	1	1	1	1	1	1	1	1	1	1	1	1	1	1	1	1	1	1	1	1	1	1	1	1	1	1	1	1	1	1	1	1	1	1	1	1	1	1	1	1	1	1	1	1	1	1	1	1	1	1	1	1	1	1	1	1	1	1	1	1	1	1	1	1	1	1	1	1	1	1	1	1	1	1	1	1	1	1	1	1	1	1	1	1	1	1	1	1	1	1	1	1	1	1	1	1	1	1	1	1	1	1	1	1	1	1	1	1	1	1	1	1	1	1	1	1	1	1	1	1	1	1	1	1	1	1	1	1	1	1	1	1	1	1	1	1	1	1	1	1	1	1	1	1	1	1	1	1	1	1	1	1	1	1	1	1	1	1	1	1	1	1	1	1	1	1	1	1	1	1	1	1	1	1	1	1	1	1	1	1	1	1	1	1	1	1	1	1	1	1	1	1	1	1	1	1	1	1	1	1	1	1	1	1	1	1	1	1	1	1	1	1	1	1	1	1	1	1	1	1	1	1	1	1	1	1	1	1	1	1	1	1	1	1	1	1	1	1	1	1	1	1	1	1	1	1	1	1	1	1	1	1	1	1	1	1	1	1	1	1	1	1	1	1	1	1	1	1	1	1	1	1	1	1	1	1	1	1	1	1	1	1	1	1	1	1	1	1	1	1	1	1	1	1	1	1	1	1	1	1	1	1	1	1	1	1	1	1	1	1	1	1	1	1	1	1	1	1	1	1	1	1	1	1	1	1	1	1	1	1	1	1	1	1	1	1	1	1	1	1	1	1	1	1	1	1	1	1	1	1	1	1	1	1	1	1	1	1	1	1	1	1	1	1	1	1	1	1	1	1	1	1	1	1	1	1	1	1	1	1	1	1	1	1	1	1	1	1	1	1	1	1	1	1	1	1	1	1	1	1	1	1	1	1	1	1	1	1	1	1	1	1	1	1	1	1	1	1	1	1	1	1	1	1	1	1	1	1	1	1	1	1	1	1	1	1	1	1	1	1	1	1	1	1	1	1	1	1	1	1	1	1	1	1	1	1	1	1	1	1	1	1	1	1	1	1	1	1	1	1	1	1	1	1	1	1	1	1	1	1	1	1	1	1	1	1	1	1	1	1	1	1	1	1	1	1	1	1	1	1	1	1	1	1	1	1	1	1	1	1	1	1	1	1	1	1	1	1	1	1	1	1	1	1	1	1	1	1	1	1	1	1	1	1	1	1	1	1	1	1	1	1	1	1	1	1	1	1	1	1	1	1	1	1	1	1	1	1	1	1	1	1	1	1	1	1	1	1	1	1	1	1	1	1	1	1	1	1	1	1	1	1	1	1	1	1	1	1	1	1	1	1	1	1	1	1	1	1	1	1	1	1	1	1	1	1	1	1	1	1	1	1	1	1	1	1	1	1	1	1	1	1	1	1	1	1	1	1	1	1	1	1	1	1	1	1	1	1	1	1	1	1	1	1	1	1	1	1	1	1	1	1	1	1	1	1	1	1	1	1	1	1	1	1	1	1	1	1	1	1	1	1	1	1	1	1	1	1	1	1	1	1	1	1	1	1	1	1	1	1	1	1	1	1	1	1	1	1	1	1	1	1	1	1	1	1	1	1	1	1	1	1	1	1	1	1	1	1	1	1	1	1	1	1	1	1	1	1	1	1	1	1	1	1	1	1	1	1	1	1	1	1	1	1	1	1	1	1	1	1	1	1	1	1	1	1	1	1	1	1	1	1	1	1	1	1	1	1	1	1	1	1	1	1	1	1	1	1	1	1	1	1	1	1	1	1	1	1	1	1	1	1	1	1	1	1	1	1	1	1	1	1	1	1	1	1	1	1	1	1	1	1	1	1	1	1	1	1	1	1	1	1	1	1	1	1	1	1	1	1	1	1	1	1	1	1	1	1	1	1	1	1	1	1	1	1	1	1	1	1	1	1	1	1	1	1	1	1	1	1	1	1	1	1	1	1	1	1	1	1	1	1	1	1	1	1	1	1	1	1	1	1	1	1	1	1	1	1	1	1	1	1	1	1	1	1	1	1	1	1	1	1	1	1	1	1	1	1	1	1	1	1	1	1	1	1	1	1	1	1	1	1	1	1	1	1	1	1	1	1	1	1	1	1	1	1	1	1	1	1	1	1	1	1	1	1	1	1	1	1	1	1	1	1	1	1	1	1	1	1	1	1	1	1	1	1	1	1	1	1	1	1	1	1	1	1	1	1	1	1	1	1	1	1	1	1	1	1	1	1	1	1	1	1	1	1	1	1	1	1	1	1	1	1	1	1	1	1	1	1	1	1	1	1	1	1	1	1	1	1	1	1	1	1	1	1	1	1	1	1	1	1	1	1	1	1	1	1	1	1	1	1	1	1	1	1	1	1	1	1	1	1	1	1	1	1	1	1	1	1	1	1	1	1	1	1	1	1	1	1	1	1	1	1	1	1	1	1	1	1	1	1	1	1	1	1	1	1	1	1	1	1	1	1	1	1	1	1	1	1	1	1	1	1	1	1	1	1	1	1	1	1	1	1	1	1	1	1	1	1	1	1	1	1	1	1	1	1	1	1	1	1	1	1	1	1	1	1	1	1	1	1	1	1	1	1	1	1	1	1	1	1	1	1	1	1	1	1	1	1	1	1	1	1	1	1	1	1	1	1	1	1	1	1	1	1	1	1	1	1	1	1	1	1	1	1	1	1	1	1	1	1	1	1	1	1	1	1	1	1	1	1	1	1	1	1	1	1	1	1	1	1	1	1	1	1	1	1	1	1	1	1	1	1	1	1	1	1	1	1	1	1	1	1	1	1	1	1	1	1	1	1	1	1	1	1	1	1	1	1	1	1	1	1	1	1	1	1	1	1	1	1	1	1	1	1	1	1	1	1	1	1	1	1	1	1	1	1	1	1	1	1	1	1	1	1	1	1	1	1	1	1	1	1	1	1	1	1	1	1	1	1	1	1	1	1	1	1	1	1	1	1	1	1	1	1	1	1	1	1	1	1	1	1	1	1	1	1	1	1	1	1	1	1	1	1	1	1	1	1	1	1	1	1	1	1	1	1	1	1	1	1	1	1	1	1	1	1	1	1	1	1	1	1	1	1	1	1	1	1	1	1	1	1	1	1	1	1	1	1	1	1	1	1	1	1	1	1	1	1	1	1	1	1	1	1	1	1	1	1	1	1	1	1	1	1	1	1	1	1	1	1	1	1	1	1	1	1	1	1	1	1	1	1	1	1	1	1	1	1	1	1	1	1	1	1	1	1	1	1	1	1	1	1	1	1	1	1	1	1	1	1	1	1	1	1	1	1	1	1	1	1	1	1	1	1	1	1	1	1	1	1	1	1	1	1	1	1	1	1	1	1	1	1	1	1	1	1	1	1	1	1	1	1	1	1	1	1	1	1	1	1	1	1	1	1	1	1	1	1	1	1	1	1	1	1	1	1	1	1	1	1	1	1	1	1	1	1	1	1	1	1	1	1	1	1	1	1	1	1	1	1	1	1	1	1	1	1	1	1	1	1	1	1	1	1	1	1	1	1	1	1	1	1	1	1	1	1	1	1	1	1	1	1	1	1	1	1	1	1	1	1	1	1	1	1	1	1	1	1	1	1	1	1	1	1	1	1	1	1	1	1	1	1	1	1	1	1	1	1	1	1	1	1	1	1	1	1	1	1	1	1	1	1	1	1	1	1	1	1	1	1	1	1	1	1	1	1	1	1	1	1	1	1	1	1	1	1	1	1	1	1	1	1	1	1	1	1	1	1	1	1	1	1	1	1	1	1	1	1	1	1	1	1	1	1	1	1	1	1	1	1	1	1	1	1	1	1	1	1	1	1	1	1	1	1	1	1	1	1	1	1	1	1	1	1	1	1	1	1	1	1	1	1	1	1	1	1	1	1	1	1	1	1	1	1	1	1	1	1	1	1	1	1	1	1	1	1	1	1	1	1	1	1	1	1	1	1	1	1	1	1	1	1	1	1	1	1	1	1	1	1	1	1	1	1	1	1	1	1	1	1	1	1	1	1	1	1	1	1	1	1	1	1	1	1	1	1	1	1	1	1	1	1	1	1	1	1	1	1	1	1	1	1	1	1	1	1	1	1	1	1	1	1	1	1	1	1	1	1	1	1	1	1	1	1	1	1	1	1	1	1	1	1	1	1	1	1	1	1	1	1	1	1	1	1	1	1	1	1	1	1	1	1	1	1	1	1	1	1	1	1	1	1	1	1	1	1	1	1	1	1	1	1	1	1	1	1	1	1	1	1	1	1	1	1	1	1	1	1	1	1	1	1	1	1	1	1	1	1	1	1	1	1	1	1	1	1	1	1	1	1	1	1	1	1	1	1	1	1	1	1	1	1	1	1	1	1	1	1	1	1	1	1	1	1	1	1	1	1	1	1	1	1	1	1	1	1	1	1	1	1	1	1	1	1	1	1	1	1	1	1	1	1</DataArray>